LAMMPS data file generated by get_input.py

8 atoms
8 atom types
-2.5000000000000000e+01 2.5000000000000000e+01 xlo xhi
-2.5000000000000000e+01 2.5000000000000000e+01 ylo yhi
-2.5000000000000000e+01 2.5000000000000000e+01 zlo zhi

Masses

1 1
2 1 
3 1 
4 1
5 1
6 1
7 1
8 1

Atoms

1 1 1 -1.0000000000000000e+00 -1.0000000000000000e+01 0.0000000000000000e+01 0.0000000000000000e+00 
2 2 1 -1.0000000000000000e+00 1.0000000000000000e+01 0.0000000000000000e+00 0.0000000000000000e+00 
3 3 2 1.0000000000000000e+00 2.0000000000000000e+00 0.0000000000000000e+00 0.0000000000000000e+00 
4 4 2 0.0000000000000000e+00 -1.2000000000000000e+01 0.0000000000000000e+00 0.0000000000000000e+00 
5 0 3 1.0000000000000000e+00 1.2000000000000000e+01 0.0000000000000000e+00 0.0000000000000000e+00 
6 0 8 -1.0000000000000000e+00 5.0000000000000000e+00 0.0000000000000000e+00 0.0000000000000000e+00
7 0 7 2.0000000000000000e+00 -8.000000000000000e+00 0.0000000000000000e+00 0.0000000000000000e+00 
8 0 8 -1.0000000000000000e+00 -5.0000000000000000e+00 0.5000000000000000e+00 0.0000000000000000e+00 
