LAMMPS (24 Dec 2020)
Reading data file ...
  orthogonal box = (-50.000000 -50.000000 -50.000000) to (50.000000 50.000000 50.000000)
  1 by 1 by 1 MPI processor grid
  reading atoms ...
  160 atoms
  scanning bonds ...
  1 = max bonds/atom
  reading bonds ...
  79 bonds
Finding 1-2 1-3 1-4 neighbors ...
  special bond factors lj:    0        0        0       
  special bond factors coul:  0        0        0       
     2 = max # of 1-2 neighbors
     2 = max # of 1-3 neighbors
     4 = max # of 1-4 neighbors
     6 = max # of special neighbors
  special bonds CPU = 0.000 seconds
  read_data CPU = 0.003 seconds
PPPM initialization ...
  using 12-bit tables for long-range coulomb (../kspace.cpp:339)
  G vector (1/distance) = 0.077106934
  grid = 8 8 8
  stencil order = 5
  estimated absolute RMS force accuracy = 0.00074388331
  estimated relative force accuracy = 0.00074388331
  using double precision KISS FFT
  3d grid and FFT values/proc = 2197 512
0 atoms in group Fix_CR:exclusion_group:chareg1
0 atoms in group Fix_CR:exclusion_group:chareg2
0 atoms in group Fix_CR:exclusion_group:chareg3
WARNING: Neighbor exclusions used with KSpace solver may give inconsistent Coulombic energies (../neighbor.cpp:486)
Neighbor list info ...
  update every 1 steps, delay 10 steps, check yes
  max neighbors/atom: 2000, page size: 100000
  master list distance cutoff = 23
  ghost atom cutoff = 23
  binsize = 11.5, bins = 9 9 9
  1 neighbor lists, perpetual/occasional/extra = 1 0 0
  (1) pair lj/cut/coul/long, perpetual
      attributes: half, newton on
      pair build: half/bin/newton
      stencil: half/bin/3d/newton
      bin: standard
Setting up Verlet run ...
  Unit style    : lj
  Current step  : 0
  Time step     : 0.005
Per MPI rank memory allocation (min/avg/max) = 6.962 | 6.962 | 6.962 Mbytes
Step PotEng c_dtemp f_chareg1[3] f_chareg1[4] f_chareg1[7] f_chareg1[8] f_chareg2[7] f_chareg2[8] 
       0   0.49903297            1            0           80           80            0            0            0 
     100   0.54331828   0.99794288           13           67           74            7            0            0 
     200   0.46491736   0.98441797           20           60           75           15            0            0 
     300   0.46166206    1.0183161           21           59           84           25            0            0 
     400   0.40227261    0.9665155           22           58           93           36            1            0 
     500   0.32801228   0.99592696           28           52           97           45            0            0 
     600   0.32715072    1.0034823           26           54          111           57            0            0 
     700   0.27935089    1.0410061           29           51          120           70            1            0 
     800   0.27793104     1.005924           30           50          126           76            0            0 
     900   0.32000859    1.0349783           31           49          132           83            0            0 
    1000   0.23943194    1.0524089           35           45          133           88            0            0 
    1100   0.18592717    1.0040443           33           47          146           99            0            0 
    1200   0.18141613   0.93285557           34           46          156          110            0            0 
    1300   0.18990285    0.9644327           37           43          159          116            0            0 
    1400   0.18458225    1.0224856           40           40          159          119            0            0 
    1500   0.18376859   0.99830604           41           39          166          127            0            0 
    1600   0.19079341   0.92908869           44           36          162          126            0            0 
    1700    0.1427362   0.93504414           42           38          164          126            0            0 
    1800   0.14398568   0.99600167           42           38          166          128            0            0 
    1900   0.17559806    1.0090619           35           45          173          128            0            0 
    2000   0.17111202   0.99785557           34           46          180          134            0            0 
    2100   0.17264843    1.0702744           34           46          180          134            0            0 
    2200   0.18963363   0.97540288           31           49          180          131            0            0 
    2300   0.16683972   0.96826542           32           48          184          136            0            0 
    2400   0.14497741   0.93532661           34           46          187          141            0            0 
    2500   0.13096832   0.98440763           31           49          188          140            1            0 
    2600   0.15962025   0.93793008           32           48          189          141            0            0 
    2700   0.14711011   0.98806201           33           47          191          143            0            1 
    2800   0.13296122   0.92886668           38           42          194          151            0            1 
    2900   0.12336515   0.99176361           41           39          198          158            0            1 
    3000    0.1147388    1.0645371           41           39          201          161            0            1 
    3100   0.11869888    1.0061765           39           41          203          162            0            0 
    3200  0.098465233    1.0172373           35           45          211          166            0            0 
    3300  0.082698908    1.0237222           36           44          216          172            0            0 
    3400  0.086480825   0.96506175           34           46          222          176            0            0 
    3500  0.078901296    1.0205767           34           46          223          177            0            0 
    3600  0.078286398     1.013855           40           40          222          182            0            0 
    3700  0.081051588    1.0467238           37           43          232          189            0            0 
    3800  0.094789573    1.0072761           33           47          228          181            0            0 
    3900  0.092808497    1.0045231           28           52          229          177            0            0 
    4000  0.072463912   0.95875222           32           48          220          172            0            0 
    4100   0.08009252    1.0475464           32           48          218          170            0            0 
    4200  0.085604948    1.0152982           30           50          231          181            0            0 
    4300  0.074284027    1.0909042           29           51          236          185            0            0 
    4400  0.083860156    1.0356603           32           48          239          191            0            0 
    4500  0.074975614    1.0144115           36           44          241          197            0            0 
    4600  0.063514383   0.99647697           33           47          242          195            0            0 
    4700  0.069481113   0.94525508           34           46          239          193            0            0 
    4800  0.064121987    1.0262888           28           52          245          193            0            0 
    4900  0.068783106   0.98148359           31           49          242          193            0            0 
    5000  0.073989135   0.96675342           36           44          244          200            0            0 
    5100  0.047347802   0.97647205           38           42          250          208            0            0 
    5200  0.071860015   0.99755324           34           46          252          206            0            0 
    5300  0.060751288    1.0204321           38           42          254          212            0            0 
    5400   0.06884736   0.99511655           35           45          249          204            0            0 
    5500  0.051714683    1.0140033           35           45          245          200            0            0 
    5600  0.054335573    1.0515193           35           45          250          205            0            0 
    5700  0.064635348    1.0270374           34           46          247          201            0            0 
    5800  0.054853093   0.98906885           40           40          235          195            0            0 
    5900  0.079669503   0.99669548           34           46          235          189            0            0 
    6000  0.090124196   0.98639667           34           46          235          189            0            0 
    6100  0.097590291   0.92819398           33           47          224          178            1            0 
    6200  0.078507387    1.0073486           38           42          224          182            0            0 
    6300  0.068713532   0.96374171           31           49          233          184            0            0 
    6400  0.094879833   0.98463766           28           52          232          180            0            0 
    6500  0.067754096   0.97789066           31           49          222          173            0            0 
    6600  0.090888972      0.95532           37           43          213          170            0            0 
    6700  0.082285474   0.98191532           34           46          223          177            0            0 
    6800   0.10175423   0.94388996           32           48          225          177            0            0 
    6900   0.10500207   0.92613144           36           44          225          181            0            0 
    7000   0.11010352   0.93946576           37           43          228          186            1            0 
    7100  0.094870039   0.99527922           37           43          225          182            0            0 
    7200  0.080982048    1.0372468           35           45          224          179            0            0 
    7300  0.090077756    1.0454116           32           48          228          180            0            0 
    7400  0.098295586    1.0274543           36           44          225          181            0            0 
    7500   0.10368413   0.98973682           36           44          232          188            0            0 
    7600  0.087698475    0.9449655           34           46          233          187            0            0 
    7700  0.088049789    1.0017817           29           51          245          194            0            0 
    7800  0.064024314    1.0133615           36           44          239          195            0            0 
    7900  0.070616284   0.99020894           35           45          237          192            0            0 
    8000   0.06620692   0.94280045           31           49          246          197            0            0 
    8100      0.06382    1.0105703           33           47          247          200            0            0 
    8200  0.068875949    1.0230472           37           43          246          203            0            0 
    8300  0.069585391     1.048817           35           45          252          207            0            0 
    8400  0.058186129    1.0166619           36           44          254          210            0            0 
    8500   0.04782832     1.034316           42           38          252          214            0            0 
    8600  0.049801835    1.0009087           43           37          252          215            0            0 
    8700  0.064470485   0.91105056           41           39          257          218            0            0 
    8800  0.064421533   0.96954661           40           40          254          214            0            0 
    8900  0.062402466   0.98789198           34           46          259          213            0            0 
    9000  0.039183107   0.96274226           39           41          255          214            0            0 
    9100  0.059690183    0.9647988           41           39          249          210            0            0 
    9200  0.068046455   0.95526737           38           42          248          206            0            0 
    9300  0.061170168   0.98775427           39           41          255          214            0            0 
    9400  0.062722601   0.97375156           36           44          258          214            0            0 
    9500  0.035491342   0.95957477           42           38          248          210            0            0 
    9600  0.044663845   0.97034065           41           39          253          214            0            0 
    9700  0.053274501   0.98833127           42           38          253          215            0            0 
    9800   0.06635118   0.98657157           41           39          250          211            0            0 
    9900  0.070265476    1.0068029           41           39          253          214            0            0 
   10000  0.088312045     0.986685           42           38          257          219            0            0 
Loop time of 21.3893 on 1 procs for 10000 steps with 556 atoms

Performance: 201970.294 tau/day, 467.524 timesteps/s
100.0% CPU use with 1 MPI tasks x no OpenMP threads

MPI task timing breakdown:
Section |  min time  |  avg time  |  max time  |%varavg| %total
---------------------------------------------------------------
Pair    | 2.3109     | 2.3109     | 2.3109     |   0.0 | 10.80
Bond    | 0.024525   | 0.024525   | 0.024525   |   0.0 |  0.11
Kspace  | 4.5491     | 4.5491     | 4.5491     |   0.0 | 21.27
Neigh   | 0.18588    | 0.18588    | 0.18588    |   0.0 |  0.87
Comm    | 0.070296   | 0.070296   | 0.070296   |   0.0 |  0.33
Output  | 0.0028574  | 0.0028574  | 0.0028574  |   0.0 |  0.01
Modify  | 14.212     | 14.212     | 14.212     |   0.0 | 66.45
Other   |            | 0.03331    |            |       |  0.16

Nlocal:        556.000 ave         556 max         556 min
Histogram: 1 0 0 0 0 0 0 0 0 0
Nghost:        1042.00 ave        1042 max        1042 min
Histogram: 1 0 0 0 0 0 0 0 0 0
Neighs:        9354.00 ave        9354 max        9354 min
Histogram: 1 0 0 0 0 0 0 0 0 0

Total # of neighbors = 9354
Ave neighs/atom = 16.823741
Ave special neighs/atom = 0.84172662
Neighbor list builds = 7547
Dangerous builds = 0
Total wall time: 0:00:21